5
Properties=species:S:1:pos:R:3 atomization_energy="-417.96"
C 1.88644 -0.00464873 -0.00823921
H 3.94992 -0.00459203 0.00782347
H 1.19769 1.94048 0.00782347
H 1.18493 -0.997265 1.65939
H 1.21199 -0.958979 -1.71096
8
Properties=species:S:1:pos:R:3 atomization_energy="-712.42"
C 1.89736 -0.00557469 -0.0120942
C 4.75448 -0.0132659 0.00111494
H 1.17607 1.93206 -0.00309915
H 1.1605 -0.982166 1.65466
H 1.17611 -0.960775 -1.69805
H 5.47576 0.948831 1.68303
H 5.49134 0.956371 -1.66971
H 5.47573 -1.95101 0.000113384
6
Properties=species:S:1:pos:R:3 atomization_energy="-564.21"
C 1.86924 0.000188973 0
C 4.39346 -0.000321253 -0
H 0.811467 1.75771 0
H 0.810825 -1.75716 0
H 5.45186 1.75707 -0
H 5.45124 -1.75782 0
4
Properties=species:S:1:pos:R:3 atomization_energy="-404.88"
C 1.88018 0 0
C 4.14835 0 0
H -0.133623 0 0
H 6.16215 0 0
9
Properties=species:S:1:pos:R:3 atomization_energy="-808.87"
C 1.90008 -0.00128501 0.00814472
C 4.76236 0.00298577 0.00234326
O 5.67749 2.52583 0.0221854
H 1.16696 -1.93207 0.0209949
H 1.16538 0.979785 -1.65799
H 1.17562 1.00161 1.66551
H 5.5032 -0.958356 -1.6733
H 5.49153 -0.960661 1.68097
H 5.0375 3.35818 -1.48512
7
Properties=species:S:1:pos:R:3 atomization_energy="-677.16"
C 1.87805 0.01765 -0.00417629
C 4.70385 0.0722064 -0.0213161
O 5.93331 1.98049 -0.50261
H 1.23282 -1.91478 -0.364169
H 1.13964 1.25049 -1.48521
H 1.19026 0.626199 1.84409
H 5.64635 -1.6798 0.594224
9
Properties=species:S:1:pos:R:3 atomization_energy="-796.98"
C 1.85703 -0.00338261 0.00859825
O 4.54158 0.0446542 0
C 5.48298 2.55918 -0.00859825
H 1.24061 -1.9758 0.00589595
H 1.11038 0.923811 -1.68223
H 1.12178 0.915988 1.70914
H 7.54802 2.48185 -0.00589595
H 4.8582 3.57251 1.68223
H 4.86179 3.55915 -1.70914
9
Properties=species:S:1:pos:R:3 atomization_energy="-860.33"
C -0.050399 1.6372 -0.107582
C -1.38997 -0.866402 -0.107903
C 1.44154 -0.771311 0.0805401
H 0.0310293 2.68473 -1.86539
H -0.200991 2.80791 1.56668
H -2.21499 -1.51433 -1.86609
H -2.44772 -1.39103 1.56571
H 2.30148 -1.23163 1.88147
H 2.53352 -1.35524 -1.55099
11
Properties=species:S:1:pos:R:3 atomization_energy="-1008.49"
C 1.87079 -0.0252467 0.00778567
C 4.74117 0.0311994 0.0156091
C 5.74787 2.72 0.0122265
H 1.19223 -1.97932 0.00096376
H 1.11445 0.922904 -1.66812
H 1.10625 0.913758 1.6852
H 5.4552 -0.974059 -1.6475
H 5.44542 -0.966519 1.68741
H 5.1238 3.74313 -1.67418
H 7.81602 2.71127 0.0287427
H 5.09665 3.75833 1.67902
9
Properties=species:S:1:pos:R:3 atomization_energy="-861.73"
C 1.84271 -0.0197287 0.0147777
C 4.66265 0.0496053 0.0206169
C 6.00124 2.19626 -0.0190673
H 1.18743 -1.98043 -0.0699955
H 1.07909 0.971565 -1.63201
H 1.08211 0.827832 1.74117
H 5.65015 -1.7518 0.0569752
H 5.08627 4.03241 -0.0523643
H 8.05292 2.15606 -0.0143052
7
Properties=species:S:1:pos:R:3 atomization_energy="-708.37"
C 1.88973 0 0
C 4.61849 0 0
C 6.86757 0 0
H 1.13077 1.92408 0.0667073
H 1.17078 -0.959981 1.68771
H 1.06399 -0.939326 -1.64518
H 8.88273 -0 -0
8
Properties=species:S:1:pos:R:3 atomization_energy="-725.93"
C -0.105673 1.66702 -0.124193
C -1.44485 -0.837149 -0.123059
N 1.30754 -0.699501 -0.152312
H -0.0783103 2.74744 -1.86142
H -0.0474132 2.75539 1.60617
H -2.32956 -1.46121 -1.85974
H -2.31773 -1.4888 1.60833
H 2.03869 -1.08977 1.59202
10
Properties=species:S:1:pos:R:3 atomization_energy="-879.38"
C 1.89719 0.0101289 0.00959981
C 4.76689 0.0353757 0.0230925
N 5.7051 2.62347 0.0429724
H 1.20151 -1.93808 0.00285349
H 1.14561 0.960189 -1.6688
H 1.13255 0.954009 1.68514
H 5.48639 -0.953046 -1.64652
H 5.46518 -0.958847 1.69737
H 5.10714 3.5435 -1.54007
H 7.62918 2.6064 -0.0370575
6
Properties=species:S:1:pos:R:3 atomization_energy="-618.72"
C 1.88973 0 0
C 4.61849 0 0
N 6.79358 0 0
H 1.14599 1.93039 0.0220909
H 1.14597 -0.984339 1.66075
H 1.14599 -0.946054 -1.6828
10
Properties=species:S:1:pos:R:3 atomization_energy="-871.19"
C 1.89842 -0.00194642 -0.00194642
N 4.65009 0.0248688 0.0186894
C 5.60912 2.60423 0.00561249
H 1.22764 -1.95866 0.0127557
H 1.14213 0.917065 -1.69497
H 1.12796 0.931767 1.67649
H 5.30507 -0.902854 -1.53733
H 4.97879 3.64659 1.67859
H 5.01479 3.62676 -1.69263
H 7.67716 2.57124 0.0368308
7
Properties=species:S:1:pos:R:3 atomization_energy="-653.44"
C -0.158283 1.69414 -0.115481
C -1.49791 -0.809823 -0.116086
O 1.20183 -0.643886 0.0251334
H -0.0516273 2.7436 -1.86828
H -0.237822 2.84228 1.57575
H -2.31132 -1.48018 -1.86924
H -2.49748 -1.38147 1.57471
10
Properties=species:S:1:pos:R:3 atomization_energy="-1010.86"
C 1.88973 0 0
C 4.61849 0 0
C 6.86757 0 0
C 9.59633 0 0
H 1.14534 1.92814 0.0220531
H 1.14534 -0.983168 1.65878
H 1.14534 -0.944976 -1.68085
H 10.3407 1.92814 -0.0220531
H 10.3407 -0.983168 -1.65878
H 10.3407 -0.944976 1.68085
12
Properties=species:S:1:pos:R:3 atomization_energy="-1159.41"
C 1.74871 -0.230981 -0.191221
C 4.57678 0.0737182 0.21369
C 5.34335 2.80371 0.156564
C 6.4022 4.02075 2.10563
H 1.23484 -2.235 -0.166901
H 1.16182 0.555334 -2.01462
H 0.672308 0.723349 1.29788
H 5.59848 -0.934961 -1.27814
H 5.10664 -0.80731 2.01176
H 5.02304 3.82473 -1.59984
H 6.76856 3.08349 3.89342
H 6.92641 5.99831 1.94831
10
Properties=species:S:1:pos:R:3 atomization_energy="-1003.91"
C 1.88995 -0.103557 0.00559359
C 4.76211 0 0
C 5.673 2.57224 0
C 6.42375 4.69232 0
H 1.24374 -2.06749 0.00389284
H 1.1054 0.833596 -1.66407
H 1.11222 0.828475 1.68131
H 5.47219 -1.00683 -1.6644
H 5.47885 -1.0094 1.65999
H 7.09566 6.59082 0
11
Properties=species:S:1:pos:R:3 atomization_energy="-1018.41"
C 0.647911 1.96564 -0.253204
C 1.82646 -0.601708 0.40459
N -0.610835 -1.80577 -0.283459
C -1.88022 0.635723 0.252619
H 1.1218 3.53823 0.996868
H 0.920826 2.54102 -2.22375
H 2.32055 -0.832708 2.4033
H 3.43881 -1.17486 -0.754095
H -0.700881 -2.30503 -2.14457
H -3.42294 1.11675 -1.03538
H -2.55929 0.797143 2.20312
11
Properties=species:S:1:pos:R:3 atomization_energy="-1025.03"
C 1.89267 -0.0256058 -0.10573
C 4.70551 -0.0913872 0.00119053
C 6.18819 -1.41129 -2.03826
N 6.15722 1.34384 -1.84987
H 1.16553 1.41282 1.18771
H 1.12029 -1.85467 0.468595
H 1.1897 0.403381 -2.003
H 5.42476 -0.145301 1.91768
H 5.18084 -2.2099 -3.63056
H 7.93509 -2.34742 -1.53268
H 7.80077 2.00179 -1.07968
13
Properties=species:S:1:pos:R:3 atomization_energy="-1174.99"
C 1.86849 -0.0571642 -0.00298577
C 4.74147 0.0219019 0.00468652
C 5.7178 2.73666 0.0167808
N 8.47276 2.76144 0.00814472
H 1.20629 -2.01643 -0.0116785
H 1.10551 0.885809 -1.67861
H 1.09689 0.874093 1.67524
H 5.44959 -0.981089 -1.66523
H 5.43961 -0.994601 1.67057
H 5.02743 3.73894 1.69172
H 5.02837 3.74884 -1.6519
H 9.13533 1.87232 1.58149
H 9.09472 4.58164 0.114744
7
Properties=species:S:1:pos:R:3 atomization_energy="-768.02"
C 1.8476 -0.00676522 -0
C 4.3767 0.0429535 0
C 5.77442 2.33752 0
N 6.92239 4.20426 0
H 0.833879 -1.78957 -0
H 0.728962 1.71761 -0
H 5.44674 -1.70321 0
5
Properties=species:S:1:pos:R:3 atomization_energy="-596.35"
C 1.77545 0 0
C 4.04445 0 0
C 6.94733 0 0
N 9.13934 0 0
H -0.238105 0 0
13
Properties=species:S:1:pos:R:3 atomization_energy="-1177.16"
C 1.88056 0.0161761 0.00788016
C 4.76181 0.0117352 0.00561249
C 5.79407 -1.38636 -2.29415
N 5.68445 2.61778 0.0362638
H 1.14049 0.998607 1.67458
H 1.14846 -1.91977 0.0457125
H 1.1152 0.950324 -1.67571
H 5.42712 -0.934073 1.72181
H 5.17981 -0.502478 -4.06437
H 5.14098 -3.35071 -2.30662
H 7.86491 -1.41438 -2.27984
H 5.10292 3.53572 -1.55619
H 7.611 2.62239 -0.0231869
9
Properties=species:S:1:pos:R:3 atomization_energy="-914.2"
C 1.89197 -0.0993618 0.00648176
C 4.76211 0 0
C 5.673 2.57224 0
N 6.39905 4.62257 0
H 1.24053 -2.06264 0.0020787
H 1.10621 0.842175 -1.66177
H 1.11445 0.831876 1.68435
H 5.47149 -1.00537 -1.66519
H 5.47934 -1.0087 1.65977
12
Properties=species:S:1:pos:R:3 atomization_energy="-1155.53"
C 0.637272 1.93277 -0.246571
C 1.8823 -0.624781 0.39911
C -0.623326 -1.88272 -0.399375
C -1.92882 0.643433 0.246704
H 1.11054 3.50512 1.00516
H 0.91304 2.52197 -2.21234
H 2.32801 -0.852342 2.40916
H 3.54061 -1.12769 -0.723482
H -0.707022 -2.37595 -2.409
H -1.21052 -3.51247 0.723595
H -3.47455 1.20389 -1.00573
H -2.56751 0.774826 2.21257
13
Properties=species:S:1:pos:R:3 atomization_energy="-1168.84"
C 1.87005 -0.112231 0.00846597
C 4.7428 -0.022261 -0.0192941
N 5.59799 2.60463 0.0115651
C 8.34679 2.74984 0.0171398
H 1.21959 -2.07541 -0.0332214
H 1.07442 0.858125 -1.63735
H 1.10832 0.774429 1.71625
H 5.42801 -0.978009 -1.72434
H 5.46987 -1.0439 1.62961
H 4.90989 3.48859 1.57953
H 9.14601 1.87021 -1.67617
H 9.15107 1.84513 1.69486
H 8.9313 4.73354 0.021883
11
Properties=species:S:1:pos:R:3 atomization_energy="-1017.37"
C 2.16213 -0.0126612 -0.176274
N 4.90877 -0.146964 0.0488683
C 6.11258 -1.41078 -2.08459
C 6.24386 1.42011 -1.78326
H 1.4351 1.4193 1.12871
H 1.32761 -1.82869 0.35935
H 1.48264 0.461679 -2.07634
H 4.92686 -2.19031 -3.5586
H 7.78516 -2.50313 -1.63926
H 8.00773 2.23611 -1.13886
H 5.15876 2.59493 -3.06058
13
Properties=species:S:1:pos:R:3 atomization_energy="-1163.14"
C 1.88852 0.00786126 -0.0212783
N 4.6512 0.0209949 -0.0270609
C 5.61878 -1.34622 -2.22417
C 5.60466 2.61391 -0.00648176
H 1.15984 0.963212 1.66579
H 1.1701 -1.93374 0.0414984
H 1.09547 0.941858 -1.6921
H 4.97091 -3.31335 -2.20034
H 7.6889 -1.40458 -2.19142
H 5.01989 -0.485055 -4.01096
H 4.94273 3.61951 1.67891
H 5.00879 3.68281 -1.67842
H 7.67439 2.62742 0.0712049
11
Properties=species:S:1:pos:R:3 atomization_energy="-1029.75"
N 1.9211 -0.062361 -0.23512
C 4.66458 -0.126593 -0.000982658
C 6.17787 -1.41697 -2.02157
C 6.22572 1.41206 -1.79879
H 1.17887 1.37394 0.812563
H 1.1386 -1.68446 0.448527
H 5.37054 -0.292775 1.92295
H 5.18465 -2.23052 -3.61752
H 7.84907 -2.45406 -1.45339
H 7.92978 2.29075 -1.081
H 5.26434 2.49807 -3.24528
11
Properties=species:S:1:pos:R:3 atomization_energy="-1028.25"
N 1.74762 -0.152388 -0.377284
C 4.41882 0.0585248 0.228581
C 5.2175 2.76386 0.128067
C 6.23681 4.02958 2.07248
H 1.22039 -1.99778 -0.247441
H 1.46962 0.352434 -2.21213
H 5.53117 -1.03924 -1.13006
H 4.75563 -0.750675 2.10398
H 4.95904 3.7474 -1.65625
H 6.52855 3.14309 3.89833
H 6.77478 5.99858 1.87406
9
Properties=species:S:1:pos:R:3 atomization_energy="-871.86"
N 1.91747 -0.0286671 0.0343741
C 4.66762 0 0
C 5.57851 2.57224 0
C 6.32926 4.69232 0
H 1.30612 -1.84477 -0.140615
H 1.26525 0.917821 -1.51012
H 5.34148 -1.00539 -1.67876
H 5.37557 -1.01994 1.65464
H 6.98796 6.59341 0.0117919
10
Properties=species:S:1:pos:R:3 atomization_energy="-952.57"
C 0.663502 2.01379 -0.1388
C 1.8357 -0.567674 0.378191
O -0.613726 -1.78445 0.256738
C -1.85448 0.652069 0.219038
H 1.08635 3.47498 1.25489
H 0.983281 2.73345 -2.04924
H 2.69152 -0.797937 2.24626
H 3.1179 -1.26806 -1.08138
H -3.1823 0.818932 -1.35278
H -2.81953 1.02718 2.00863
10
Properties=species:S:1:pos:R:3 atomization_energy="-953.49"
C 1.89747 -0.00846597 -0.11002
C 4.68777 -0.269248 0.0896297
C 6.20424 -1.45673 -2.00114
O 6.09036 1.23522 -1.66621
H 1.22719 1.47786 1.16279
H 0.978198 -1.78107 0.429119
H 1.29567 0.471884 -2.03115
H 5.36459 -0.40648 2.01165
H 5.22231 -2.2535 -3.60917
H 7.95917 -2.39011 -1.51753
12
Properties=species:S:1:pos:R:3 atomization_energy="-1104.57"
C 1.87228 -0.053895 -0.00993996
C 4.73828 0.0447109 0.0192752
C 5.71385 2.74997 0.030538
O 8.39976 2.75154 0.0233759
H 1.22195 -2.01751 -0.0172532
H 1.11424 0.878798 -1.69486
H 1.08038 0.878023 1.6592
H 5.49479 -0.957808 -1.62758
H 5.45749 -0.962116 1.67974
H 5.06148 3.78147 1.70262
H 5.0724 3.77307 -1.65083
H 8.95662 1.86879 1.53629
8
Properties=species:S:1:pos:R:3 atomization_energy="-831.06"
C 1.84942 -0.026664 0.0449566
C 4.37251 0.0133415 -0.052421
C 5.76567 2.43032 -0.0242641
O 8.07703 2.48716 -0.112779
H 0.842175 -1.81486 0.0232058
H 0.720061 1.68411 0.147644
H 5.50158 -1.69238 -0.154939
H 4.61282 4.16242 0.0801055
12
Properties=species:S:1:pos:R:3 atomization_energy="-1157.46"
C 1.93434 0.0244342 -0.14241
C 4.7448 -0.0864739 0.00447865
C 6.22909 -1.3877 -2.04274
C 6.34118 1.44175 -1.786
H 1.21294 1.4875 1.1307
H 1.11883 -1.7867 0.433503
H 1.26808 0.452873 -2.05375
H 5.39815 -0.301392 1.93378
H 5.22207 -2.16782 -3.64517
H 7.88055 -2.46692 -1.48682
H 8.06692 2.27296 -1.06
H 5.41153 2.56853 -3.22306
12
Properties=species:S:1:pos:R:3 atomization_energy="-1107.82"
C 1.87512 0.00910848 0.0151934
C 4.74903 -0.0237728 -0.00190862
C 5.79146 -1.40254 -2.29804
O 5.66336 2.50908 0.000529123
H 1.17641 1.04695 1.66417
H 1.10301 -1.90843 0.0658381
H 1.13072 0.978973 -1.65576
H 5.43994 -0.933317 1.72286
H 5.19015 -0.486075 -4.05452
H 5.17071 -3.37464 -2.33485
H 7.86101 -1.36104 -2.28526
H 5.05702 3.32904 -1.52679
10
Properties=species:S:1:pos:R:3 atomization_energy="-980.82"
C 1.88666 -0.00927856 -0.0139273
C 4.72751 0.0650633 0.00959981
C 6.09529 -2.42779 -0.0100533
O 5.89366 2.07653 0.034393
H 1.13822 1.91677 0.00109604
H 1.20565 -1.00218 1.66423
H 1.2324 -0.966066 -1.72468
H 4.74743 -3.9945 0.0334482
H 7.30785 -2.55516 1.65805
H 7.22605 -2.57343 -1.73295
10
Properties=species:S:1:pos:R:3 atomization_energy="-973.32"
C 1.86079 -0.0608303 -0.101724
C 4.71284 0.0455991 0.14018
C 5.61198 2.74315 0.0706758
O 7.02356 3.65774 1.66759
H 1.20362 -2.0205 -0.0482069
H 1.23259 0.785143 -1.88249
H 0.948718 0.974135 1.44037
H 5.60763 -0.969921 -1.42378
H 5.31693 -0.822768 1.91766
H 5.01462 3.85984 -1.58622
12
Properties=species:S:1:pos:R:3 atomization_energy="-1096.09"
C 1.82461 -0.185004 -0.00296687
C 4.68637 -0.0625499 -0.0219208
O 5.43007 2.52509 0.0513439
C 8.10303 2.78744 0.0367363
H 1.1694 -2.14433 -0.0590917
H 1.0408 0.828513 -1.62802
H 1.06709 0.724786 1.69558
H 5.41609 -0.951515 -1.74263
H 5.44353 -1.05479 1.6294
H 8.56033 4.80132 0.0944296
H 8.90069 1.97824 -1.69129
H 8.92928 1.87455 1.6983
10
Properties=species:S:1:pos:R:3 atomization_energy="-953.53"
C 1.89885 -0.231057 0.0948076
O 4.56023 -0.0387772 -0.262426
C 5.3741 2.41244 -0.307326
C 7.68327 3.01729 -1.11388
H 1.3864 -2.23286 0.041385
H 0.880216 0.742322 -1.42175
H 1.34894 0.5309 1.93909
H 4.04849 3.81114 0.376528
H 8.97554 1.56806 -1.77207
H 8.32203 4.96329 -1.12805
10
Properties=species:S:1:pos:R:3 atomization_energy="-956.51"
O 1.9365 0.0213917 -0.26887
C 4.61962 -0.0652144 0.0675955
C 6.0461 -1.40777 -1.98085
C 6.1401 1.42289 -1.80473
H 1.17174 1.28809 0.82205
H 5.34418 -0.234194 1.97886
H 4.96805 -2.24329 -3.50841
H 7.71307 -2.46713 -1.44566
H 7.88284 2.28534 -1.1591
H 5.1423 2.49969 -3.23181
6
Properties=species:S:1:pos:R:3 atomization_energy="-667.28"
O 1.80699 -0.0330324 0
C 4.11709 -0.030897 0
C 5.51668 2.30745 0
C 6.68079 4.25593 0
H 5.26241 -1.76839 0
H 7.69413 5.99633 0
10
Properties=species:S:1:pos:R:3 atomization_energy="-958.05"
O 1.86735 -0.134246 -0.569866
C 4.44318 -0.05758 0.163386
C 5.26833 2.63505 0.102026
C 6.31329 3.86952 2.04929
H 1.33609 -1.88653 -0.443141
H 5.55109 -1.17284 -1.17962
H 4.62769 -0.88802 2.04888
H 4.96875 3.63381 -1.66884
H 6.6329 2.9602 3.85961
H 6.85343 5.84037 1.86762
8
Properties=species:S:1:pos:R:3 atomization_energy="-799.52"
O 1.89029 -0.00410071 -0.0217318
C 4.57314 0 0
C 5.48402 2.57224 0
C 6.23477 4.69232 0
H 1.36639 -1.76064 -0.0200311
H 5.23911 -1.02319 -1.66914
H 5.21192 -1.01348 1.6856
H 6.88582 6.598 -0.00020787
9
Properties=species:S:1:pos:R:3 atomization_energy="-816.7"
C 1.87518 0.0102612 -0.013058
C 4.69911 0.127783 0.0493219
N 5.85755 2.26809 -0.201558
O 8.45734 1.85055 0.0137005
H 1.27904 -1.94668 -0.283591
H 1.14391 1.1827 -1.55094
H 1.13132 0.697025 1.78932
H 5.72372 -1.64686 0.421163
H 9.14369 3.56011 -0.119242
14
Properties=species:S:1:pos:R:3 atomization_energy="-1304.31"
C 1.85165 -0.108716 0.00181414
C 4.72199 0.00910848 -0.00727545
C 5.66733 2.73562 0.0288183
C 8.53774 2.85343 0.0187272
H 1.21498 -2.07675 -0.0236405
H 1.06274 0.842383 -1.65784
H 1.07773 0.792098 1.69603
H 5.43532 -0.961455 -1.692
H 5.44944 -1.01106 1.64264
H 4.95278 3.70634 1.7137
H 4.93893 3.75523 -1.62076
H 9.32465 1.90229 1.67876
H 9.17381 4.8213 0.0449944
H 9.31096 1.95126 -1.67464
9
Properties=species:S:1:pos:R:3 atomization_energy="-872.88"
C 1.921 -0.0415929 -0.0112061
C 4.75544 0.0659892 -0.00330702
N 5.91475 -2.23299 0.005518
O 5.96985 2.03414 -0.00748332
H 1.15447 1.87782 0.0146832
H 1.25145 -1.04936 1.66388
H 1.26096 -1.00212 -1.71742
H 4.961 -3.88541 0.00230547
H 7.82626 -2.26487 0.00803134
9
Properties=species:S:1:pos:R:3 atomization_energy="-860.01"
C 1.87053 -0.00387394 0.00317474
N 4.5864 0.0769874 0.00719986
C 5.9433 2.26257 -0.132867
O 8.23403 2.34103 0.159493
H 1.26642 -1.80622 -0.801414
H 1.10233 1.56373 -1.10137
H 1.20959 0.143014 1.9546
H 5.59319 -1.47066 0.516009
H 4.79605 3.94851 -0.557016
9
Properties=species:S:1:pos:R:3 atomization_energy="-803.46"
C 1.80533 -0.653789 0.0568619
O 4.40236 -0.125988 -0.398109
N 4.69493 2.49875 -0.627238
C 7.046 2.98358 -1.03958
H 1.57609 -2.69889 0.235498
H 0.651653 0.0110738 -1.52539
H 1.18996 0.242603 1.81591
H 7.67433 4.95222 -1.27723
H 8.50573 1.50088 -1.17188
11
Properties=species:S:1:pos:R:3 atomization_energy="-974.5"
N 1.83884 0.00215429 0.0710537
C 4.59513 0.0249255 -0.0145509
C 5.67133 2.71117 -0.0149288
O 8.36138 2.63887 -0.0529501
H 1.2171 -1.81992 -0.00799354
H 1.14019 0.866024 -1.50475
H 5.25514 -0.986891 -1.69711
H 5.33953 -1.01442 1.61479
H 5.0684 3.76626 1.66048
H 5.04211 3.74831 -1.69089
H 8.90424 1.94455 1.56055
14
Properties=species:S:1:pos:R:3 atomization_energy="-1305.32"
C 1.86675 -0.0144375 -0.00145509
C 4.75223 0.0164973 -0.0118108
C 5.77355 -1.41142 -2.30172
C 5.73774 2.72822 0.0152123
H 1.12758 0.960567 1.66802
H 1.1529 -1.95696 0.034034
H 1.09615 0.919541 -1.68099
H 5.42038 -0.937285 1.70257
H 5.15706 -0.534774 -4.07295
H 5.11632 -3.37395 -2.29666
H 7.84295 -1.43819 -2.28755
H 5.12241 3.77051 -1.6643
H 7.80659 2.75721 0.0637405
H 5.05241 3.74222 1.68414
10
Properties=species:S:1:pos:R:3 atomization_energy="-1018.95"
C 1.75642 -0.282779 0.434618
C 4.04815 0.184853 -0.524758
C 5.21154 2.64739 -0.444596
C 7.50301 3.1181 -1.40305
H 0.951742 -2.16697 0.333045
H 0.629373 1.17473 1.33655
H 5.0947 -1.34664 -1.40766
H 4.16344 4.18094 0.439569
H 8.6307 1.66167 -2.30501
H 8.30633 5.00284 -1.3007
8
Properties=species:S:1:pos:R:3 atomization_energy="-860.26"
C 1.84382 -0.0240373 -0
C 4.37048 0.00653845 -0
C 5.73921 2.3135 0
C 6.88992 4.26876 0
H 0.818799 -1.79972 -0
H 0.745308 1.70797 -0
H 5.42933 -1.75117 -0
H 7.89739 6.00939 0
6
Properties=species:S:1:pos:R:3 atomization_energy="-693.01"
C 1.71615 0 0
C 3.9839 0 0
C 6.879 0 0
C 9.14663 0 0
H -0.296498 0 0
H 11.1595 0 0
12
Properties=species:S:1:pos:R:3 atomization_energy="-1160.57"
C 1.80227 -0.0150611 0.0158548
C 4.62475 -0.00119053 0.0244909
C 5.99946 2.12832 -0.0228846
C 8.82226 2.18711 -0.0175556
H 1.10878 -1.96159 -0.0873053
H 1.05987 1.00584 -1.62254
H 1.05815 0.83182 1.74953
H 5.56163 -1.83018 0.0708269
H 5.05005 3.95159 -0.0637027
H 9.6441 0.288656 0.00430858
H 9.50219 3.20454 1.64865
H 9.50829 3.16711 -1.70436
12
Properties=species:S:1:pos:R:3 atomization_energy="-1161.23"
C 1.87493 -0.0358859 -0.0305002
C 4.71012 0.0507391 -0.00330702
C 6.06551 -2.44192 -0.013058
C 5.99272 2.23912 0.0353001
H 1.03941 1.85424 -0.0250767
H 1.17382 -1.04052 1.63843
H 1.20489 -1.01972 -1.72192
H 4.73577 -4.02162 0.104899
H 7.34695 -2.58558 1.60595
H 7.15494 -2.66718 -1.75642
H 5.03007 4.05006 0.0415551
H 8.04262 2.27345 0.0514572
15
Properties=species:S:1:pos:R:3 atomization_energy="-1402.97"
C 1.75189 -0.0930312 0.0580146
C 4.61881 0.0640239 0.124193
C 5.63407 2.7716 0.040648
C 4.91178 4.3441 2.33948
O 8.32566 2.67296 -0.114404
H 1.15145 -2.0701 -0.0466195
H 0.992635 0.894067 -1.59327
H 0.908656 0.727223 1.75775
H 5.39103 -0.989668 -1.48672
H 5.32965 -0.907617 1.81272
H 4.96539 3.71826 -1.67405
H 5.53896 3.43172 4.08935
H 2.87123 4.65305 2.44857
H 5.84385 6.19171 2.26822
H 8.94799 1.84347 1.40299
13
Properties=species:S:1:pos:R:3 atomization_energy="-1276.16"
C 1.83436 -0.194188 -0.125894
C 4.68558 -0.0346765 0.0920108
C 5.5814 2.67876 0.0133415
C 5.60107 3.97785 -2.51849
O 6.20066 3.8043 1.95367
H 1.20655 -2.15688 0.0497565
H 1.1803 0.526875 -1.9512
H 0.91355 0.918388 1.35624
H 5.606 -1.09158 -1.43018
H 5.30987 -0.874244 1.8786
H 6.58108 2.7977 -3.90179
H 6.60879 5.77634 -2.36626
H 3.66454 4.3397 -3.13521
13
Properties=species:S:1:pos:R:3 atomization_energy="-1270.08"
C 1.80903 -0.0560115 0.00976988
C 4.68083 -0.015817 0.00859825
C 5.69943 2.67748 0.0162139
C 8.55105 2.77189 0.0135304
O 9.93456 0.914061 -0.00823921
H 1.11944 -2.0061 0.00702978
H 1.05375 0.894181 -1.66553
H 1.05492 0.889097 1.68843
H 5.37831 -1.0317 -1.65755
H 5.37994 -1.04105 1.66836
H 5.04506 3.69345 1.69694
H 5.04126 3.70556 -1.65561
H 9.36486 4.69228 0.0302356
15
Properties=species:S:1:pos:R:3 atomization_energy="-1391.77"
C 1.74692 -0.0777811 0.0440117
C 4.61386 -0.0290073 0.0145509
C 5.64036 2.66043 3.77945e-05
O 8.33316 2.53991 -0.0304246
C 9.43506 4.98874 -0.0262861
H 1.06218 -2.02977 0.0574666
H 0.970941 0.86232 -1.6287
H 1.00499 0.873658 1.72549
H 5.31786 -1.0494 -1.64508
H 5.35148 -1.04354 1.66294
H 5.01191 3.6772 1.69297
H 4.97518 3.67372 -1.68099
H 11.4907 4.77759 -0.0626633
H 8.90762 6.01626 1.68875
H 8.85049 6.04979 -1.70151
15
Properties=species:S:1:pos:R:3 atomization_energy="-1395.15"
C 2.13966 -0.234118 -0.2992
C 4.97249 -0.274086 0.128426
O 5.95797 2.16485 -0.449812
C 8.62257 2.27682 -0.0808614
C 9.51638 4.91947 -0.729945
H 1.30435 -2.07482 0.128445
H 1.70746 0.256984 -2.26098
H 1.24486 1.19964 0.892782
H 5.85023 -1.6924 -1.09993
H 5.37926 -0.742908 2.10457
H 9.55793 0.896921 -1.30767
H 9.0745 1.84806 1.89294
H 9.05338 5.38436 -2.6936
H 11.5595 5.09332 -0.46852
H 8.56925 6.323 0.459298
11
Properties=species:S:1:pos:R:3 atomization_energy="-1109.98"
C 2.29942 -0.885771 -0.792457
C 4.73015 -0.669398 -0.156828
O 5.98023 1.59489 -0.29784
C 8.46937 1.71377 0.409749
C 9.78525 3.8612 0.280284
H 1.33432 -2.68866 -0.673782
H 1.23512 0.741699 -1.44262
H 5.83693 -2.25705 0.495581
H 9.28842 -0.0339584 1.07777
H 8.91261 5.58824 -0.397485
H 11.7524 3.9288 0.847901
11
Properties=species:S:1:pos:R:3 atomization_energy="-1132.96"
C 1.77889 -0.193187 0.00432747
C 4.58814 0.00306136 -0.402285
O 5.85371 -1.82073 -1.09377
C 5.89143 2.45681 0.038078
C 4.75529 4.58604 0.793175
H 0.783783 1.09563 -1.26659
H 1.3147 0.21815 1.97456
H 1.16186 -2.12144 -0.417195
H 7.91466 2.41407 -0.305909
H 2.7432 4.71592 1.15899
H 5.85972 6.29475 1.06753
9
Properties=species:S:1:pos:R:3 atomization_energy="-971.15"
C 1.87415 -0.00642507 -0.0111116
C 4.70708 -0.104615 0.00315584
O 5.91121 -2.08112 0.0122265
C 6.02811 2.28799 0.00075589
C 7.13797 4.27018 -0.00102045
H 1.1899 1.94379 0.013606
H 1.153 -0.980201 1.66224
H 1.17146 -0.932996 -1.71867
H 8.13863 6.01691 -0.00166296
13
Properties=species:S:1:pos:R:3 atomization_energy="-1256.77"
C 1.68314 -0.236065 -0.156432
C 4.52057 0.111928 0.16452
O 5.79925 -1.35637 -1.68864
C 5.2881 2.82285 -0.158019
C 6.50145 4.17913 1.60321
H 0.62308 0.842497 1.25536
H 1.18036 -2.236 0.0295364
H 1.05989 0.354305 -2.04192
H 5.08856 -0.607698 2.02036
H 5.48073 -0.592108 -3.32639
H 4.81744 3.73024 -1.94062
H 7.02889 3.36876 3.41302
H 7.01096 6.13613 1.25771
11
Properties=species:S:1:pos:R:3 atomization_energy="-1099.75"
C 1.89088 -0.111059 -0.00147399
C 4.76211 0 0
O 5.67366 -1.28222 -2.18439
C 5.673 2.57224 0
C 6.42375 4.69232 0
H 1.09226 0.814396 1.66999
H 1.24197 -2.07806 -0.0391929
H 1.1022 0.804853 -1.68628
H 5.47926 -1.01936 1.65139
H 5.2852 -0.215448 -3.62911
H 7.10681 6.58706 0.00309915
13
Properties=species:S:1:pos:R:3 atomization_energy="-1331.79"
C -2.3967 -0.000170075 -0.245589
C -0.722669 -2.31187 0.197231
C 1.87807 -1.26462 -0.0977933
C 1.87907 1.26152 -0.0841873
C -0.72403 2.30545 0.220833
H -3.06665 0.0100911 -2.2092
H -4.07281 -0.00678412 0.967842
H -1.11906 -3.79567 -1.18673
H -0.975647 -3.08205 2.1007
H 3.55372 -2.42626 -0.241053
H 3.55429 2.42565 -0.216033
H -0.975685 3.05641 2.1335
H -1.11902 3.80387 -1.1471
13
Properties=species:S:1:pos:R:3 atomization_energy="-1254.62"
C 1.80994 -2.06683 -0.0324088
C 3.89883 -0.102593 0.0381536
O 2.75341 2.33372 0.224915
C 4.32725 4.37353 0.320157
C 6.85269 4.44879 0.267812
H 2.59524 -3.97264 -0.180393
H 0.551573 -1.7353 -1.64153
H 0.646116 -1.95454 1.67532
H 5.019 -0.232625 -1.69841
H 5.10821 -0.450605 1.68339
H 3.20133 6.08377 0.455991
H 8.01858 2.77134 0.133887
H 7.82473 6.25152 0.361939
13
Properties=species:S:1:pos:R:3 atomization_energy="-1242.47"
C 4.79293 -1.75317 -1.62615
O 3.81027 0.593298 -0.769459
C 5.75531 2.31573 0.0374922
C 6.62141 4.20799 -1.89305
C 4.93946 5.02818 0.235989
H 3.21599 -2.9416 -2.2349
H 5.79585 -2.71204 -0.0926722
H 6.06351 -1.45942 -3.23128
H 7.11204 1.66334 1.43277
H 5.80834 4.11097 -3.77034
H 8.58249 4.78923 -1.8498
H 5.75552 6.1637 1.73188
H 2.98598 5.47199 -0.19228
13
Properties=species:S:1:pos:R:3 atomization_energy="-1251.24"
C 2.26147 -0.0996453 -1.13153
O 4.7903 -0.176274 -0.210742
C 5.9049 2.15674 -0.200405
C 8.40664 2.41755 0.0207681
C 9.74071 4.90029 0.0696175
H 1.52866 -2.03238 -1.15836
H 2.20285 0.645379 -3.06204
H 1.05976 1.03258 0.116861
H 4.62692 3.74695 -0.346273
H 9.57012 0.731607 0.178825
H 8.43336 6.49544 -0.0935792
H 11.0875 5.00743 -1.4963
H 10.7857 5.1039 1.8425
15
Properties=species:S:1:pos:R:3 atomization_energy="-1393.45"
C 1.92624 -0.186459 0.261179
O 4.56104 0.14772 0.657946
C 5.40369 2.68095 0.243529
C 4.71063 4.37645 2.46891
C 8.26487 2.57545 -0.0741718
H 1.49438 -2.19762 0.462548
H 1.39241 0.408105 -1.64622
H 0.826925 0.851511 1.66876
H 4.57484 3.42175 -1.50456
H 5.37119 3.56189 4.25525
H 2.65966 4.59202 2.63311
H 5.52902 6.26522 2.25616
H 9.17296 1.7836 1.6109
H 9.05494 4.45318 -0.432974
H 8.76839 1.33774 -1.65619
13
Properties=species:S:1:pos:R:3 atomization_energy="-1251.26"
C 2.23834 0.305852 -1.5087
O 4.31738 0.308006 0.201331
C 5.77374 2.47856 0.111456
C 4.46875 4.99604 0.109888
C 8.28945 2.24836 0.210364
H 1.44927 -1.60464 -1.54852
H 2.84661 0.791946 -3.42656
H 0.753528 1.59381 -0.865173
H 3.03091 5.06182 1.59637
H 3.55981 5.35427 -1.713
H 5.7946 6.54656 0.461452
H 9.16217 0.394102 0.288769
H 9.52651 3.88155 0.221873
13
Properties=species:S:1:pos:R:3 atomization_energy="-1245.18"
C 4.22027 -1.59174 -0.467651
O 6.52897 -0.224405 -0.412017
C 6.12388 2.37763 0.1395
C 8.64852 3.64611 0.143279
C 9.26306 5.64575 -1.28171
H 4.64377 -3.56856 -0.896089
H 2.97331 -0.850698 -1.94203
H 3.27983 -1.50211 1.37192
H 5.25894 2.56691 2.01175
H 4.86028 3.209 -1.27676
H 10.0586 2.84207 1.40142
H 7.92426 6.50034 -2.58012
H 11.1447 6.45695 -1.18769
11
Properties=species:S:1:pos:R:3 atomization_energy="-1086.74"
C 1.89313 -0.120527 0.0566729
O 4.5752 -0.0155335 0.0545942
C 5.46889 2.52949 0
C 8.19765 2.52949 0
C 10.4467 2.52949 0
H 1.32279 -2.10395 0.0996075
H 1.13253 0.748388 -1.65676
H 1.13251 0.821388 1.73209
H 4.75158 3.54199 1.65806
H 4.75158 3.4699 -1.69998
H 12.4599 2.50838 0.000453534
13
Properties=species:S:1:pos:R:3 atomization_energy="-1255.97"
O 1.77082 0.0114517 0.0477345
C 4.48564 0.036793 0.0159871
C 5.76431 1.99882 1.76718
C 7.78826 -0.0110738 2.33992
C 5.8135 -2.0224 1.6101
H 1.3006 -1.48606 -0.910413
H 5.19251 0.127802 -1.93209
H 4.62133 2.53756 3.40852
H 6.45619 3.70959 0.838604
H 9.41581 0.058128 1.06097
H 8.46327 -0.0789905 4.28989
H 6.54807 -3.63765 0.552707
H 4.68699 -2.71512 3.20414
11
Properties=species:S:1:pos:R:3 atomization_energy="-1131.38"
O 2.0006 0.00661404 0.387016
C 4.27785 -0.00812582 0.137383
C 6.32444 2.05959 -0.0326545
C 8.07391 -0.00270231 -1.15268
C 6.27518 -2.10818 -0.201558
H 6.90117 2.77918 1.81729
H 5.87584 3.62168 -1.3023
H 8.22441 0.0789528 -3.21743
H 9.98114 -0.0582792 -0.357706
H 5.78988 -3.54998 -1.5938
H 6.83221 -2.98762 1.583
13
Properties=species:S:1:pos:R:3 atomization_energy="-1253.73"
O 5.75433 -1.7901 -1.08
C 4.47289 0.191316 0.193584
C 6.13961 2.46314 0.209287
C 6.21665 4.217 -2.03257
C 5.02818 5.07739 0.403362
H 4.61807 -3.23194 -1.09258
H 4.0741 -0.413812 2.13135
H 2.68071 0.552046 -0.775506
H 7.90278 2.09603 1.1859
H 4.99024 3.81732 -3.62404
H 8.03211 5.00672 -2.55612
H 6.03803 6.46462 1.52176
H 2.99112 5.28641 0.449339
13
Properties=species:S:1:pos:R:3 atomization_energy="-1306.46"
C 3.6103 -1.24879 -2.24957
C 3.90843 0.560115 -0.50467
C 6.11695 2.20444 -0.247195
C 6.63322 4.15303 -2.25716
C 5.70463 4.96862 0.294759
H 1.91254 -2.39746 -2.29813
H 5.05373 -1.60946 -3.66104
H 2.40075 0.824828 0.872846
H 7.73979 1.31686 0.640485
H 5.34239 4.31254 -3.84079
H 8.58835 4.53239 -2.73649
H 7.0312 5.90458 1.54451
H 3.78973 5.68605 0.426322
11
Properties=species:S:1:pos:R:3 atomization_energy="-1121.33"
O 4.37555 -1.83073 -0.553765
C 3.92602 0.369593 0.00162516
C 5.97497 2.2685 0.107922
C 6.66072 3.73416 -2.23844
C 5.38848 5.05237 -0.0707513
H 2.00216 1.02406 0.463285
H 7.53088 1.7226 1.32823
H 5.57645 3.40425 -3.9463
H 8.64593 4.11596 -2.57498
H 6.513 6.34103 1.05872
H 3.44507 5.6475 -0.32679
9
Properties=species:S:1:pos:R:3 atomization_energy="-966.71"
O 2.44771 -0.644075 1.38065
C 4.24198 -0.108168 0.00799354
C 5.67558 2.34209 0.183039
C 8.40947 1.91785 -0.0254546
C 10.6499 1.58729 -0.195152
H 4.77691 -1.3664 -1.5676
H 5.21785 3.25972 1.97941
H 5.02306 3.56064 -1.35612
H 12.6388 1.30289 -0.337089
13
Properties=species:S:1:pos:R:3 atomization_energy="-1255.27"
O 5.16867 -1.81187 -2.2587
C 4.53997 -0.530087 0.0233381
C 5.70667 2.11184 0.0425755
C 8.53939 2.02454 0.283062
C 9.84971 3.06776 2.17989
H 4.47657 -3.50879 -2.12658
H 5.20123 -1.6572 1.62824
H 2.47856 -0.385882 0.119563
H 4.88715 3.20099 1.60266
H 5.24274 3.09435 -1.72146
H 9.54886 1.04793 -1.22154
H 8.92523 4.06803 3.71293
H 11.8971 2.94053 2.2275
11
Properties=species:S:1:pos:R:3 atomization_energy="-1099.93"
O 1.77183 0.130864 0.0286671
C 4.46172 0.031634 0.0299711
C 5.53197 2.70764 0
C 8.26073 2.70764 0
C 10.5098 2.70764 0
H 1.17286 -1.60682 0.0480368
H 5.07624 -1.0302 -1.63834
H 5.07611 -0.993259 1.72124
H 4.80484 3.74969 1.63718
H 4.80487 3.71318 -1.6599
H 12.524 2.71682 -9.44863e-05
10
Properties=species:S:1:pos:R:3 atomization_energy="-980.76"
C -2.34343 -0.0229413 -0.312353
C -0.756533 -2.31612 0.230679
C 1.75561 -1.14618 -0.112231
N 1.7922 1.28851 -0.102083
O -0.741604 2.08955 0.225577
H -2.90498 0.0733214 -2.30261
H -4.03799 0.0608303 0.867328
H -1.08812 -3.87553 -1.07643
H -0.925115 -2.97445 2.18161
H 3.46409 -2.31514 -0.269928